TITLE = "Parallelepiped Geometry"
VARIABLES = "X", "Y", "Z"
ZONE N=8, E=6, DATAPACKING=POINT, ZONETYPE=FEQUADRILATERAL
-0.04167522041970184 0.0 0.045480522327956296
0.9545194776720437 0.0 -0.04167522041970184
0.9545194776720437 1.0 -0.04167522041970184
-0.04167522041970184 1.0 0.045480522327956296
0.045480522327956296 0.0 1.0416752204197017
1.0416752204197017 0.0 0.9545194776720437
1.0416752204197017 1.0 0.9545194776720437
0.045480522327956296 1.0 1.0416752204197017
1 2 3 4
5 6 7 8
1 2 6 5
2 3 7 6
3 4 8 7
4 1 5 8
