TITLE = "Parallelepiped Geometry"
VARIABLES = "X", "Y", "Z"
ZONE N=8, E=6, DATAPACKING=POINT, ZONETYPE=FEQUADRILATERAL
0.0 0.30000001192092896 0.0
1.0 0.30000001192092896 0.0
1.0 4.0 0.5
0.0 4.0 0.5
0.0 0.0 1.0
1.0 0.0 1.0
1.0 4.0 1.5
0.0 4.0 1.5
1 2 3 4
5 6 7 8
1 2 6 5
2 3 7 6
3 4 8 7
4 1 5 8
