TITLE = "Parallelepiped Geometry"
VARIABLES = "X", "Y", "Z"
ZONE N=8, E=6, DATAPACKING=POINT, ZONETYPE=FEQUADRILATERAL
0.05115588742656624 0.31190409594167756 -0.03968028006916191
1.0473505855183118 0.28686007754817366 0.04379978124251782
1.0982734226198885 3.9862211938427237 0.5459293538575879
0.10207872452814293 4.011265212236228 0.46244929254590816
-0.03983737970171264 0.013045674596970465 0.9565144180100984
0.9563573183900329 -0.011998343796533457 1.0399944793217781
1.0147933613082087 3.9872685246431607 1.5424382511894645
0.018598663216463196 4.012312543036664 1.4589581898777848
1 2 3 4
5 6 7 8
1 2 6 5
2 3 7 6
3 4 8 7
4 1 5 8
