TITLE = "Parallelepiped Geometry"
VARIABLES = "X", "Y", "Z"
ZONE N=8, E=6, DATAPACKING=POINT, ZONETYPE=FEQUADRILATERAL
31.79064208438667 2.4010531902313232 2.3005892648034783
36.40238088869415 2.4010531902313232 1.4874152856238738
36.40238088869415 8.912799835205078 1.4874152856238738
31.79064208438667 8.912799835205078 2.3005892648034783
32.669687793117625 2.4010531902313232 7.2859052113423335
37.28142659742511 2.4010531902313232 6.4727312321627295
37.28142659742511 8.912799835205078 6.4727312321627295
32.67146097602252 8.912799835205078 7.285592551354469
1 2 3 4
5 6 7 8
1 2 6 5
2 3 7 6
3 4 8 7
4 1 5 8
