TITLE = "Parallelepiped Geometry"
VARIABLES = "X", "Y", "Z"
ZONE N=8, E=6, DATAPACKING=POINT, ZONETYPE=FEQUADRILATERAL
31.80463218688965 2.4010531902313232 1.703503131866455
36.48751449584961 2.4010531902313232 1.703503131866455
36.48751449584961 8.912799835205078 1.703503131866455
31.80463218688965 8.912799835205078 1.703503131866455
31.80463218688965 2.4010531902313232 6.765725612640381
36.48751449584961 2.4010531902313232 6.765725612640381
36.48751449584961 8.912799835205078 6.765725612640381
31.806432723999023 8.912799835205078 6.765725612640381
1 2 3 4
5 6 7 8
1 2 6 5
2 3 7 6
3 4 8 7
4 1 5 8
