TITLE = "Parallelepiped Geometry"
VARIABLES = "X", "Y", "Z"
ZONE N=8, E=6, DATAPACKING=POINT, ZONETYPE=FEQUADRILATERAL
55.88756150286431 -0.12398897111415863 6.4173019545136665
62.453795777807 -0.12398897111415863 5.842830893400816
67.62803128290712 11.707975387573242 5.390143944291221
59.963309032577634 11.707975387573242 6.060720250269961
56.053095457783506 -0.12398897111415863 8.30936371712307
62.6193297327262 -0.12398897111415863 7.734892656010219
67.79356523782633 11.707975387573242 7.2822057069006245
60.12884298749684 11.707975387573242 7.952782012879364
1 2 3 4
5 6 7 8
1 2 6 5
2 3 7 6
3 4 8 7
4 1 5 8
