TITLE = "Parallelepiped Geometry"
VARIABLES = "X", "Y", "Z"
ZONE N=8, E=6, DATAPACKING=POINT, ZONETYPE=FEQUADRILATERAL
55.90868377685547 -0.12398897111415863 6.052918434143066
62.5 -0.12398897111415863 6.052918434143066
67.69400024414062 11.707975387573242 6.052918434143066
60.0 11.707975387573242 6.052918434143066
55.90868377685547 -0.12398897111415863 7.952207565307617
62.5 -0.12398897111415863 7.952207565307617
67.69400024414062 11.707975387573242 7.952207565307617
60.0 11.707975387573242 7.952207565307617
1 2 3 4
5 6 7 8
1 2 6 5
2 3 7 6
3 4 8 7
4 1 5 8
